LAMMPS Data File for Mixture of Hexane and Water

10180 atoms
6789 bonds
3398 angles
7 dihedrals

4 atom types 
2 bond types 
2 angle types 
1 dihedral types 

-2.0 44.0 xlo xhi
-2.0 44.0 ylo yhi
-2.0 44.0 zlo zhi


Masses 

1 15.9994
2 1.0079
3 15.0345
4 14.0266

Bond Coeffs 

1 200.0 0.9572
2 300.0 1.54

Angle Coeffs 

1 200.0 104.52
2 62.1 114.0

Dihedral Coeffs 

1 1.411 -0.271 3.145 0.0

Atoms 

1 1 1 -1.1128 15.47 0.493 2.354
2 1 2 0.5564 16.151 -0.001 2.811
3 1 2 0.5564 15.316 0 1.548
4 2 1 -1.1128 34.04 16.474 42.003
5 2 2 0.5564 34.39 17.11 41.379
6 2 2 0.5564 33.82 15.71 41.47
7 3 1 -1.1128 13.27 28.078 12.005
8 3 2 0.5564 13.346 28.868 12.541
9 3 2 0.5564 13.052 28.402 11.131
10 4 1 -1.1128 8.413 19.469 9.649
11 4 2 0.5564 7.534 19.817 9.5
12 4 2 0.5564 8.998 20.131 9.281
13 5 1 -1.1128 37.927 42 8.752
14 5 2 0.5564 37.686 41.942 7.828
15 5 2 0.5564 37.775 41.119 9.096
16 6 1 -1.1128 9.918 34.426 16.546
17 6 2 0.5564 9.757 35.369 16.492
18 6 2 0.5564 10.871 34.348 16.583
19 7 1 -1.1128 14.158 12.223 11.091
20 7 2 0.5564 14.405 12.282 10.168
21 7 2 0.5564 13.845 11.325 11.198
22 8 1 -1.1128 12.014 23.6 40.982
23 8 2 0.5564 12.77 23.411 40.426
24 8 2 0.5564 11.864 24.539 40.87
25 9 1 -1.1128 32.458 26.413 37.197
26 9 2 0.5564 31.59 26.814 37.236
27 9 2 0.5564 32.702 26.278 38.112
28 10 1 -1.1128 8.266 28.126 12.473
29 10 2 0.5564 9.088 28.144 12.964
30 10 2 0.5564 7.756 27.429 12.886
31 11 1 -1.1128 18.091 18.717 27.392
32 11 2 0.5564 17.957 19.081 26.517
33 11 2 0.5564 18.843 18.132 27.296
34 12 1 -1.1128 15.62 21.287 34.289
35 12 2 0.5564 14.664 21.278 34.337
36 12 2 0.5564 15.849 22.213 34.217
37 13 1 -1.1128 20.642 7.354 1.738
38 13 2 0.5564 21.084 6.668 2.239
39 13 2 0.5564 19.777 6.991 1.545
40 14 1 -1.1128 13.273 33.906 21.613
41 14 2 0.5564 12.463 33.396 21.638
42 14 2 0.5564 13.032 34.717 21.165
43 15 1 -1.1128 1.458 11.437 6.035
44 15 2 0.5564 2.23 11.999 6.101
45 15 2 0.5564 0.722 12.047 5.981
46 16 1 -1.1128 19.6 3.922 25.732
47 16 2 0.5564 20.322 3.296 25.675
48 16 2 0.5564 19.158 3.704 26.553
49 17 1 -1.1128 18.095 13.86 14.746
50 17 2 0.5564 17.144 13.826 14.646
51 17 2 0.5564 18.418 13.133 14.212
52 18 1 -1.1128 32.606 17.627 29.304
53 18 2 0.5564 31.653 17.718 29.333
54 18 2 0.5564 32.809 17.008 30.005
55 19 1 -1.1128 28.167 41.209 5.17
56 19 2 0.5564 28.465 42 5.619
57 19 2 0.5564 27.227 41.172 5.349
58 20 1 -1.1128 7.369 5.94 11.332
59 20 2 0.5564 7.732 6.789 11.587
60 20 2 0.5564 8.132 5.418 11.083
61 21 1 -1.1128 9.76 31.129 17.265
62 21 2 0.5564 9.411 30.758 18.075
63 21 2 0.5564 9.854 30.379 16.677
64 22 1 -1.1128 28.344 0.692 12.479
65 22 2 0.5564 29.006 0 12.464
66 22 2 0.5564 28.848 1.505 12.486
67 23 1 -1.1128 20.075 -0.003 21.932
68 23 2 0.5564 20.062 0.893 21.594
69 23 2 0.5564 20.048 0.099 22.883
70 24 1 -1.1128 19.539 35.802 17.527
71 24 2 0.5564 20.013 34.971 17.479
72 24 2 0.5564 18.721 35.587 17.975
73 25 1 -1.1128 23.014 29.914 7.513
74 25 2 0.5564 22.668 30.805 7.464
75 25 2 0.5564 22.242 29.353 7.449
76 26 1 -1.1128 30.81 24.459 14.722
77 26 2 0.5564 31.762 24.554 14.727
78 26 2 0.5564 30.479 25.358 14.727
79 27 1 -1.1128 4.074 13.658 41.997
80 27 2 0.5564 3.753 14.534 41.784
81 27 2 0.5564 3.371 13.071 41.722
82 28 1 -1.1128 14.516 21.115 40.05
83 28 2 0.5564 14.083 21.664 40.703
84 28 2 0.5564 13.798 20.72 39.555
85 29 1 -1.1128 11.162 31.67 2.009
86 29 2 0.5564 11.925 31.937 2.522
87 29 2 0.5564 11.37 30.785 1.711
88 30 1 -1.1128 10.403 4.706 40.347
89 30 2 0.5564 9.467 4.85 40.209
90 30 2 0.5564 10.552 4.957 41.259
91 31 1 -1.1128 18.779 41.049 9.564
92 31 2 0.5564 19.455 41.564 9.122
93 31 2 0.5564 18.047 41.656 9.671
94 32 1 -1.1128 36.102 34.025 22.94
95 32 2 0.5564 36.833 33.767 23.502
96 32 2 0.5564 35.468 33.314 23.03
97 33 1 -1.1128 34.297 23.687 39.315
98 33 2 0.5564 35.179 23.926 39.029
99 33 2 0.5564 34.243 22.743 39.164
100 34 1 -1.1128 36.302 16.293 18.72
101 34 2 0.5564 36.147 15.815 17.905
102 34 2 0.5564 35.934 15.731 19.401
103 35 1 -1.1128 6.623 26.484 7.655
104 35 2 0.5564 7.124 25.791 7.226
105 35 2 0.5564 7.21 26.822 8.331
106 36 1 -1.1128 4.057 8.023 23.204
107 36 2 0.5564 5.011 8.039 23.128
108 36 2 0.5564 3.831 7.093 23.181
109 37 1 -1.1128 27.911 34.031 29.852
110 37 2 0.5564 27.61 33.125 29.788
111 37 2 0.5564 28.864 33.963 29.91
112 38 1 -1.1128 31.804 6.276 38.555
113 38 2 0.5564 32.166 5.536 38.067
114 38 2 0.5564 32.461 6.468 39.223
115 39 1 -1.1128 42 39.535 8.629
116 39 2 0.5564 41.898 39.56 7.678
117 39 2 0.5564 41.206 39.951 8.966
118 40 1 -1.1128 5.903 41.239 9.527
119 40 2 0.5564 6.566 41.925 9.601
120 40 2 0.5564 6.336 40.538 9.04
121 41 1 -1.1128 5.748 26.129 0.651
122 41 2 0.5564 6.251 25.417 1.046
123 41 2 0.5564 4.995 26.241 1.231
124 42 1 -1.1128 30.235 11.435 37.871
125 42 2 0.5564 29.576 10.979 37.347
126 42 2 0.5564 30.827 11.823 37.228
127 43 1 -1.1128 5.551 19.246 4.425
128 43 2 0.5564 4.984 18.477 4.48
129 43 2 0.5564 6.408 18.933 4.713
130 44 1 -1.1128 17.586 29.243 40.122
131 44 2 0.5564 16.713 29.541 39.867
132 44 2 0.5564 18.068 30.049 40.312
133 45 1 -1.1128 39.749 32.74 39.373
134 45 2 0.5564 40.589 32.856 38.93
135 45 2 0.5564 39.386 31.939 38.994
136 46 1 -1.1128 21.418 27.289 27.454
137 46 2 0.5564 20.777 26.881 28.036
138 46 2 0.5564 21.072 28.167 27.293
139 47 1 -1.1128 22.027 37.464 38.434
140 47 2 0.5564 21.527 38.279 38.486
141 47 2 0.5564 21.363 36.774 38.449
142 48 1 -1.1128 39.677 4.86 0
143 48 2 0.5564 40.43 5.413 0.21
144 48 2 0.5564 39.139 4.876 0.792
145 49 1 -1.1128 15.849 38.688 6.731
146 49 2 0.5564 14.96 38.743 7.083
147 49 2 0.5564 15.827 39.221 5.937
148 50 1 -1.1128 23.764 25.692 2.214
149 50 2 0.5564 24.076 26.211 2.955
150 50 2 0.5564 24.468 25.748 1.568
151 51 1 -1.1128 0.473 23.399 20.148
152 51 2 0.5564 0.607 23.279 21.089
153 51 2 0.5564 0.273 22.521 19.821
154 52 1 -1.1128 30.97 29.275 16.225
155 52 2 0.5564 31.165 29.531 17.126
156 52 2 0.5564 30.134 29.699 16.03
157 53 1 -1.1128 5.937 4.762 27.068
158 53 2 0.5564 6.564 5.353 27.486
159 53 2 0.5564 5.293 4.573 27.751
160 54 1 -1.1128 8.203 12.387 6.196
161 54 2 0.5564 7.579 12.847 6.756
162 54 2 0.5564 7.689 11.692 5.784
163 55 1 -1.1128 26.707 31.727 32.592
164 55 2 0.5564 27.353 31.186 33.045
165 55 2 0.5564 26.568 31.284 31.754
166 56 1 -1.1128 20.858 16.718 15.003
167 56 2 0.5564 20.955 16.84 15.948
168 56 2 0.5564 20.052 16.211 14.908
169 57 1 -1.1128 30.031 29.039 29.121
170 57 2 0.5564 30.117 28.768 28.206
171 57 2 0.5564 30.504 28.37 29.615
172 58 1 -1.1128 10.12 5.371 12.211
173 58 2 0.5564 9.5 5.865 12.748
174 58 2 0.5564 9.779 4.476 12.213
175 59 1 -1.1128 37.436 9.475 1.486
176 59 2 0.5564 37.198 8.561 1.639
177 59 2 0.5564 38.392 9.482 1.512
178 60 1 -1.1128 0.957 8.315 23.939
179 60 2 0.5564 1.187 7.388 24
180 60 2 0.5564 0 8.326 23.939
181 61 1 -1.1128 29.683 35.788 24.796
182 61 2 0.5564 29.769 36.737 24.886
183 61 2 0.5564 29.167 35.521 25.557
184 62 1 -1.1128 41.637 7.259 2.18
185 62 2 0.5564 41.686 6.417 1.727
186 62 2 0.5564 42 7.086 3.049
187 63 1 -1.1128 3.116 34.089 5.881
188 63 2 0.5564 2.835 34.713 6.551
189 63 2 0.5564 3.809 33.58 6.303
190 64 1 -1.1128 19.658 18.063 37.589
191 64 2 0.5564 19.708 18.627 36.817
192 64 2 0.5564 19.064 17.358 37.333
193 65 1 -1.1128 10.967 29.4 7.937
194 65 2 0.5564 11.641 28.782 7.653
195 65 2 0.5564 11.389 30.257 7.885
196 66 1 -1.1128 32.146 24.687 40.303
197 66 2 0.5564 32.065 24.291 39.435
198 66 2 0.5564 32.673 25.474 40.16
199 67 1 -1.1128 22.733 28.666 37.261
200 67 2 0.5564 22.971 29.593 37.23
201 67 2 0.5564 23.571 28.203 37.246
202 68 1 -1.1128 35.347 23.854 35.341
203 68 2 0.5564 35.988 24.526 35.104
204 68 2 0.5564 35.567 23.106 34.785
205 69 1 -1.1128 27.218 5.184 29.862
206 69 2 0.5564 28.155 4.998 29.928
207 69 2 0.5564 27.175 6.093 29.563
208 70 1 -1.1128 8.044 23.362 37.643
209 70 2 0.5564 7.852 24.242 37.965
210 70 2 0.5564 7.778 23.38 36.723
211 71 1 -1.1128 23.167 1.981 13.729
212 71 2 0.5564 23.293 2.495 12.931
213 71 2 0.5564 23.267 2.614 14.44
214 72 1 -1.1128 2.189 9.912 13.285
215 72 2 0.5564 2.562 10.793 13.281
216 72 2 0.5564 2.949 9.33 13.281
217 73 1 -1.1128 9.514 9.686 31.675
218 73 2 0.5564 9.063 8.867 31.876
219 73 2 0.5564 8.826 10.352 31.703
220 74 1 -1.1128 33.237 19.667 30.708
221 74 2 0.5564 33.75 18.859 30.73
222 74 2 0.5564 32.331 19.373 30.614
223 75 1 -1.1128 16.124 37.487 22.47
224 75 2 0.5564 15.205 37.232 22.555
225 75 2 0.5564 16.316 37.388 21.538
226 76 1 -1.1128 37.204 19.616 29.099
227 76 2 0.5564 37.216 18.681 28.892
228 76 2 0.5564 36.565 19.989 28.492
229 77 1 -1.1128 17.706 27.392 4.213
230 77 2 0.5564 18.31 28.064 4.53
231 77 2 0.5564 16.98 27.884 3.829
232 78 1 -1.1128 18.896 0.473 29.024
233 78 2 0.5564 19.747 0.035 29.041
234 78 2 0.5564 18.37 0 29.669
235 79 1 -1.1128 18.767 38.53 12.141
236 79 2 0.5564 18.663 39.403 11.762
237 79 2 0.5564 19.333 38.664 12.901
238 80 1 -1.1128 4.79 19.347 27.736
239 80 2 0.5564 4.141 20.028 27.911
240 80 2 0.5564 4.274 18.554 27.591
241 81 1 -1.1128 11.321 41.344 17.009
242 81 2 0.5564 10.623 41.912 16.685
243 81 2 0.5564 11.934 41.939 17.44
244 82 1 -1.1128 14.03 10.332 21.151
245 82 2 0.5564 13.206 9.886 20.958
246 82 2 0.5564 14.517 9.712 21.695
247 83 1 -1.1128 28.886 19.737 0.844
248 83 2 0.5564 29.149 18.882 0.501
249 83 2 0.5564 28.434 19.538 1.664
250 84 1 -1.1128 41.074 37.107 10.536
251 84 2 0.5564 41.901 37.582 10.452
252 84 2 0.5564 40.442 37.771 10.81
253 85 1 -1.1128 38.548 5.835 8.403
254 85 2 0.5564 38.828 6.751 8.402
255 85 2 0.5564 37.591 5.877 8.407
256 86 1 -1.1128 30.7 27.5 21.992
257 86 2 0.5564 31.542 27.916 21.804
258 86 2 0.5564 30.861 26.565 21.862
259 87 1 -1.1128 2.251 8.746 18.321
260 87 2 0.5564 2.166 8.822 19.271
261 87 2 0.5564 2.365 9.647 18.017
262 88 1 -1.1128 22.068 28.097 1.515
263 88 2 0.5564 22.984 28.371 1.466
264 88 2 0.5564 22.105 27.142 1.558
265 89 1 -1.1128 18.513 26.835 41.91
266 89 2 0.5564 18.01 26.026 42
267 89 2 0.5564 19.113 26.664 41.184
268 90 1 -1.1128 7.855 29.231 10.616
269 90 2 0.5564 7.359 28.44 10.405
270 90 2 0.5564 7.202 29.931 10.613
271 91 1 -1.1128 13.46 17.787 15.87
272 91 2 0.5564 13.617 18.35 15.112
273 91 2 0.5564 13.948 16.986 15.679
274 92 1 -1.1128 29.394 18.577 19.146
275 92 2 0.5564 29.641 17.805 19.655
276 92 2 0.5564 30.198 19.095 19.091
277 93 1 -1.1128 21.236 35.066 12.137
278 93 2 0.5564 21.931 34.95 12.785
279 93 2 0.5564 21.65 35.554 11.425
280 94 1 -1.1128 5.099 2.748 34.293
281 94 2 0.5564 5.744 3.023 34.945
282 94 2 0.5564 5.46 1.943 33.923
283 95 1 -1.1128 10.731 7.398 22.208
284 95 2 0.5564 11.074 7.913 21.478
285 95 2 0.5564 9.795 7.315 22.025
286 96 1 -1.1128 6.41 41.552 35.526
287 96 2 0.5564 5.99 40.895 36.083
288 96 2 0.5564 5.971 41.464 34.68
289 97 1 -1.1128 33.832 24.343 5.648
290 97 2 0.5564 34.588 24.922 5.546
291 97 2 0.5564 34.208 23.464 5.7
292 98 1 -1.1128 25.897 33.49 35.248
293 98 2 0.5564 25.284 32.819 35.549
294 98 2 0.5564 26.727 33.262 35.666
295 99 1 -1.1128 15.933 30.958 6.451
296 99 2 0.5564 15.024 31.197 6.634
297 99 2 0.5564 16.192 31.532 5.73
298 100 1 -1.1128 25.11 4.738 13.906
299 100 2 0.5564 24.514 4.42 14.584
300 100 2 0.5564 24.682 4.505 13.082
301 101 1 -1.1128 30.634 20.937 31.92
302 101 2 0.5564 30.467 20.422 31.13
303 101 2 0.5564 31.541 20.735 32.151
304 102 1 -1.1128 30.184 7.28 41.01
305 102 2 0.5564 31.061 6.928 40.857
306 102 2 0.5564 29.979 7.769 40.213
307 103 1 -1.1128 37.462 16.648 28.025
308 103 2 0.5564 36.687 16.301 27.583
309 103 2 0.5564 38.09 15.926 28.01
310 104 1 -1.1128 6.229 13.618 13.629
311 104 2 0.5564 6.123 14.565 13.543
312 104 2 0.5564 7.172 13.49 13.736
313 105 1 -1.1128 12.87 17.885 28.093
314 105 2 0.5564 13.362 17.156 28.472
315 105 2 0.5564 12.322 17.48 27.421
316 106 1 -1.1128 4.375 27.22 3.618
317 106 2 0.5564 4.186 26.328 3.909
318 106 2 0.5564 5.322 27.312 3.725
319 107 1 -1.1128 24.66 8.754 19.602
320 107 2 0.5564 25.334 8.082 19.508
321 107 2 0.5564 25.081 9.448 20.11
322 108 1 -1.1128 17.497 21.877 11.975
323 108 2 0.5564 16.871 21.901 12.699
324 108 2 0.5564 18.148 22.542 12.198
325 109 1 -1.1128 15.002 38.918 25.542
326 109 2 0.5564 14.079 39.171 25.549
327 109 2 0.5564 15.478 39.744 25.619
328 110 1 -1.1128 38.894 19.549 19.827
329 110 2 0.5564 39.796 19.846 19.71
330 110 2 0.5564 38.957 18.594 19.849
331 111 1 -1.1128 31.843 39.065 8.071
332 111 2 0.5564 31.792 40.007 8.234
333 111 2 0.5564 32.693 38.806 8.426
334 112 1 -1.1128 18.667 24.663 18.574
335 112 2 0.5564 18.351 25.483 18.193
336 112 2 0.5564 17.879 24.131 18.686
337 113 1 -1.1128 18.646 6.355 31.512
338 113 2 0.5564 19.341 6.032 30.938
339 113 2 0.5564 19.108 6.701 32.276
340 114 1 -1.1128 36.832 34.821 9.014
341 114 2 0.5564 36.063 34.839 8.443
342 114 2 0.5564 37.317 35.614 8.787
343 115 1 -1.1128 0.929 31.942 33.908
344 115 2 0.5564 0.125 32.299 33.532
345 115 2 0.5564 1.3 32.666 34.414
346 116 1 -1.1128 5.578 13.165 29.271
347 116 2 0.5564 5.971 12.374 28.902
348 116 2 0.5564 6.29 13.584 29.754
349 117 1 -1.1128 9.585 25.6 17.694
350 117 2 0.5564 10.479 25.363 17.944
351 117 2 0.5564 9.224 26.027 18.471
352 118 1 -1.1128 24.735 7.94 33.856
353 118 2 0.5564 25.362 8.489 34.327
354 118 2 0.5564 24.424 7.315 34.511
355 119 1 -1.1128 19.946 6.915 5.832
356 119 2 0.5564 19.208 6.312 5.924
357 119 2 0.5564 20.717 6.348 5.81
358 120 1 -1.1128 28.548 24.97 13.368
359 120 2 0.5564 28.609 24.375 14.115
360 120 2 0.5564 29.371 24.848 12.896
361 121 1 -1.1128 31.385 1.99 40.945
362 121 2 0.5564 31.795 1.187 40.624
363 121 2 0.5564 30.502 1.722 41.203
364 122 1 -1.1128 21.992 42 18.119
365 122 2 0.5564 21.441 41.445 18.67
366 122 2 0.5564 21.665 41.857 17.231
367 123 1 -1.1128 34.608 27.837 18.965
368 123 2 0.5564 34.733 27.056 18.425
369 123 2 0.5564 34.96 28.553 18.437
370 124 1 -1.1128 4.287 20.141 25.687
371 124 2 0.5564 4.185 19.247 25.359
372 124 2 0.5564 3.567 20.628 25.286
373 125 1 -1.1128 26.884 28.574 34.205
374 125 2 0.5564 25.94 28.613 34.052
375 125 2 0.5564 26.989 27.915 34.891
376 126 1 -1.1128 0.116 19.2 12.998
377 126 2 0.5564 0.998 18.903 13.225
378 126 2 0.5564 0.002 20.012 13.491
379 127 1 -1.1128 5.102 5.878 32.981
380 127 2 0.5564 4.253 6.318 32.938
381 127 2 0.5564 4.89 4.945 32.94
382 128 1 -1.1128 39.314 17.813 15.176
383 128 2 0.5564 39.224 16.872 15.324
384 128 2 0.5564 39.039 17.94 14.268
385 129 1 -1.1128 23.856 0.426 2.141
386 129 2 0.5564 24.347 0 1.438
387 129 2 0.5564 24.072 1.354 2.056
388 130 1 -1.1128 39.462 26.934 40.69
389 130 2 0.5564 38.831 27.052 39.98
390 130 2 0.5564 39.806 27.812 40.854
391 131 1 -1.1128 29.717 9.373 0.56
392 131 2 0.5564 29.667 8.589 0.013
393 131 2 0.5564 29.004 9.93 0.247
394 132 1 -1.1128 23.644 27.046 13.03
395 132 2 0.5564 23.842 26.727 12.149
396 132 2 0.5564 24.209 27.811 13.14
397 133 1 -1.1128 36.959 22.972 16.83
398 133 2 0.5564 37.531 22.287 16.483
399 133 2 0.5564 37.14 22.983 17.77
400 134 1 -1.1128 40.037 5.917 32.932
401 134 2 0.5564 39.362 6.033 32.264
402 134 2 0.5564 39.999 6.72 33.453
403 135 1 -1.1128 34.544 4.482 21.721
404 135 2 0.5564 34.212 4.489 20.824
405 135 2 0.5564 33.985 5.103 22.189
406 136 1 -1.1128 9.361 7.06 27.424
407 136 2 0.5564 9.543 8 27.433
408 136 2 0.5564 10.225 6.649 27.4
409 137 1 -1.1128 38.876 10.714 8.201
410 137 2 0.5564 38.649 9.815 7.965
411 137 2 0.5564 38.235 11.253 7.738
412 138 1 -1.1128 41.603 37.911 26.2
413 138 2 0.5564 41.022 38.671 26.21
414 138 2 0.5564 41.12 37.246 25.709
415 139 1 -1.1128 21.788 8.473 30.506
416 139 2 0.5564 21.929 8.719 29.592
417 139 2 0.5564 22.096 9.228 31.008
418 140 1 -1.1128 38.972 21.618 25.977
419 140 2 0.5564 38.257 20.991 25.867
420 140 2 0.5564 39.564 21.438 25.246
421 141 1 -1.1128 17.581 25.686 2.266
422 141 2 0.5564 16.77 26.113 2.542
423 141 2 0.5564 17.727 25.003 2.921
424 142 1 -1.1128 32.523 2.671 28.876
425 142 2 0.5564 33.368 2.521 28.451
426 142 2 0.5564 32.363 1.873 29.38
427 143 1 -1.1128 19.977 26.407 9.926
428 143 2 0.5564 20.493 25.72 10.348
429 143 2 0.5564 19.854 26.097 9.028
430 144 1 -1.1128 33.747 15.585 16.619
431 144 2 0.5564 33.372 14.708 16.697
432 144 2 0.5564 34.622 15.44 16.257
433 145 1 -1.1128 35.328 35.887 36.282
434 145 2 0.5564 36.182 35.993 35.864
435 145 2 0.5564 35.156 34.946 36.243
436 146 1 -1.1128 34.13 30.063 26.861
437 146 2 0.5564 34.787 30.758 26.893
438 146 2 0.5564 33.889 29.919 27.776
439 147 1 -1.1128 4.733 19.482 22.801
440 147 2 0.5564 4.123 19.317 22.081
441 147 2 0.5564 4.353 20.224 23.272
442 148 1 -1.1128 29.941 10.637 25.065
443 148 2 0.5564 30.797 11.064 25.043
444 148 2 0.5564 29.313 11.359 25.093
445 149 1 -1.1128 31.622 15.321 38.559
446 149 2 0.5564 32.502 15.638 38.764
447 149 2 0.5564 31.646 14.389 38.776
448 150 1 -1.1128 35.389 25.875 27.092
449 150 2 0.5564 35.681 26.594 27.653
450 150 2 0.5564 34.447 25.815 27.25
451 151 1 -1.1128 6.993 0.169 8.725
452 151 2 0.5564 7.331 1.014 9.021
453 151 2 0.5564 7.029 0.217 7.769
454 152 1 -1.1128 37.279 35.547 18.733
455 152 2 0.5564 36.524 35.748 19.285
456 152 2 0.5564 38 36.043 19.121
457 153 1 -1.1128 10.791 21.078 35.205
458 153 2 0.5564 11.518 21.7 35.253
459 153 2 0.5564 11.08 20.331 35.729
460 154 1 -1.1128 19.153 39.778 26.218
461 154 2 0.5564 19.186 40.735 26.211
462 154 2 0.5564 18.223 39.569 26.134
463 155 1 -1.1128 24.029 20.502 36.854
464 155 2 0.5564 23.981 19.715 36.313
465 155 2 0.5564 24.967 20.668 36.953
466 156 1 -1.1128 8.817 41.279 0
467 156 2 0.5564 9.423 41.978 0.244
468 156 2 0.5564 9.084 40.532 0.535
469 157 1 -1.1128 2.376 4.902 34.854
470 157 2 0.5564 2.441 5.374 34.023
471 157 2 0.5564 2.92 5.406 35.459
472 158 1 -1.1128 18.556 33.755 32.85
473 158 2 0.5564 17.65 33.763 32.54
474 158 2 0.5564 18.812 34.677 32.868
475 159 1 -1.1128 17.765 15.286 4.898
476 159 2 0.5564 18.647 15.563 5.148
477 159 2 0.5564 17.758 14.341 5.05
478 160 1 -1.1128 18.73 19.7 39.258
479 160 2 0.5564 19.038 18.842 39.551
480 160 2 0.5564 18.252 19.52 38.448
481 161 1 -1.1128 32.638 0.103 37.726
482 161 2 0.5564 32.286 0 36.841
483 161 2 0.5564 31.878 0 38.299
484 162 1 -1.1128 22.545 7.997 17.875
485 162 2 0.5564 21.977 7.641 18.559
486 162 2 0.5564 22.55 8.941 18.035
487 163 1 -1.1128 4.248 39.219 4.651
488 163 2 0.5564 3.744 39.526 3.898
489 163 2 0.5564 3.596 38.828 5.233
490 164 1 -1.1128 1.806 32.026 4.877
491 164 2 0.5564 1.452 32.892 5.083
492 164 2 0.5564 2.609 31.966 5.394
493 165 1 -1.1128 24.155 25.605 16.765
494 165 2 0.5564 24.929 25.38 17.282
495 165 2 0.5564 23.503 24.949 17.012
496 166 1 -1.1128 38.207 16.208 4.668
497 166 2 0.5564 37.839 15.324 4.69
498 166 2 0.5564 39.153 16.071 4.608
499 167 1 -1.1128 25.099 14.447 28.322
500 167 2 0.5564 25.094 13.741 27.676
501 167 2 0.5564 24.479 15.091 27.98
502 168 1 -1.1128 35.384 39.223 10.237
503 168 2 0.5564 34.866 39.863 10.724
504 168 2 0.5564 36.123 39.724 9.892
505 169 1 -1.1128 40.539 2.498 37.801
506 169 2 0.5564 40.495 1.686 38.305
507 169 2 0.5564 41.023 3.104 38.363
508 170 1 -1.1128 2.713 41.999 27.371
509 170 2 0.5564 3.669 41.98 27.407
510 170 2 0.5564 2.453 41.078 27.409
511 171 1 -1.1128 18.288 8.268 8.152
512 171 2 0.5564 18.759 7.851 7.43
513 171 2 0.5564 17.447 8.526 7.774
514 172 1 -1.1128 5.117 29.617 3.255
515 172 2 0.5564 6.034 29.342 3.268
516 172 2 0.5564 5.153 30.573 3.217
517 173 1 -1.1128 21.325 6.632 29.244
518 173 2 0.5564 20.471 7.064 29.258
519 173 2 0.5564 21.129 5.707 29.396
520 174 1 -1.1128 35.018 38.363 30.694
521 174 2 0.5564 34.207 37.871 30.569
522 174 2 0.5564 35.393 38.009 31.5
523 175 1 -1.1128 13.354 4.327 12.628
524 175 2 0.5564 14.267 4.35 12.342
525 175 2 0.5564 13.162 5.227 12.892
526 176 1 -1.1128 34.947 20.79 15.061
527 176 2 0.5564 35.357 21.405 15.669
528 176 2 0.5564 35.147 21.14 14.193
529 177 1 -1.1128 9.787 35.687 41.406
530 177 2 0.5564 9.023 35.111 41.39
531 177 2 0.5564 9.54 36.397 42
532 178 1 -1.1128 9.66 27.64 23.385
533 178 2 0.5564 10.514 27.25 23.196
534 178 2 0.5564 9.027 26.997 23.065
535 179 1 -1.1128 5.624 31.462 39.972
536 179 2 0.5564 6.412 30.962 39.756
537 179 2 0.5564 5.91 32.375 39.964
538 180 1 -1.1128 29.094 33.047 24.665
539 180 2 0.5564 28.488 33.753 24.438
540 180 2 0.5564 29.852 33.495 25.042
541 181 1 -1.1128 42 1.078 10.417
542 181 2 0.5564 41.423 0.462 10.869
543 181 2 0.5564 41.427 1.801 10.164
544 182 1 -1.1128 11.915 19.474 2.778
545 182 2 0.5564 11.677 19.231 1.883
546 182 2 0.5564 12.247 18.664 3.166
547 183 1 -1.1128 31.829 16.518 33.817
548 183 2 0.5564 32.736 16.212 33.809
549 183 2 0.5564 31.324 15.761 34.115
550 184 1 -1.1128 6.321 17.936 23.198
551 184 2 0.5564 7.01 17.287 23.341
552 184 2 0.5564 6.787 18.771 23.141
553 185 1 -1.1128 15.052 34.488 37.46
554 185 2 0.5564 15.224 34.884 36.606
555 185 2 0.5564 14.19 34.081 37.366
556 186 1 -1.1128 16.892 31.499 23.156
557 186 2 0.5564 15.975 31.355 23.391
558 186 2 0.5564 17.282 30.626 23.167
559 187 1 -1.1128 7.424 1.425 20.149
560 187 2 0.5564 8.299 1.813 20.124
561 187 2 0.5564 7.571 0.492 19.996
562 188 1 -1.1128 21.384 19.758 16.456
563 188 2 0.5564 21.197 19.025 15.869
564 188 2 0.5564 20.846 19.589 17.229
565 189 1 -1.1128 21.184 2.17 39.247
566 189 2 0.5564 20.242 2.005 39.287
567 189 2 0.5564 21.573 1.31 39.091
568 190 1 -1.1128 39.411 18.941 26.325
569 190 2 0.5564 39.907 19.72 26.577
570 190 2 0.5564 39.218 19.069 25.396
571 191 1 -1.1128 13.818 17.052 13.248
572 191 2 0.5564 14.06 16.173 12.954
573 191 2 0.5564 12.917 16.962 13.556
574 192 1 -1.1128 3.429 1.127 34.163
575 192 2 0.5564 2.537 0.785 34.097
576 192 2 0.5564 3.979 0.348 34.24
577 193 1 -1.1128 8.617 35.006 14.17
578 193 2 0.5564 8.327 34.367 13.519
579 193 2 0.5564 8.3 34.661 15.004
580 194 1 -1.1128 36.438 25.369 2.594
581 194 2 0.5564 36.302 26.163 2.077
582 194 2 0.5564 36.376 25.661 3.504
583 195 1 -1.1128 2.676 13.492 3.108
584 195 2 0.5564 1.745 13.273 3.158
585 195 2 0.5564 3.12 12.746 3.512
586 196 1 -1.1128 5.39 38.505 10.084
587 196 2 0.5564 4.782 39.229 10.236
588 196 2 0.5564 5.431 38.423 9.131
589 197 1 -1.1128 1.941 38.749 36.676
590 197 2 0.5564 1.433 39.453 37.08
591 197 2 0.5564 2.136 38.15 37.397
592 198 1 -1.1128 15.735 35.319 21.064
593 198 2 0.5564 15.521 34.414 20.838
594 198 2 0.5564 14.926 35.805 20.904
595 199 1 -1.1128 34.934 35.89 21.103
596 199 2 0.5564 34.03 36.105 20.872
597 199 2 0.5564 35.053 36.259 21.978
598 200 1 -1.1128 32.306 17.495 35.74
599 200 2 0.5564 33.086 17.809 35.281
600 200 2 0.5564 31.602 18.069 35.436
601 201 1 -1.1128 21.275 30.374 40.145
602 201 2 0.5564 20.426 30.166 39.754
603 201 2 0.5564 21.397 29.708 40.821
604 202 1 -1.1128 29.77 23.513 27.687
605 202 2 0.5564 30.288 22.944 27.117
606 202 2 0.5564 28.899 23.116 27.695
607 203 1 -1.1128 33.954 2.7 39.812
608 203 2 0.5564 34.475 3.497 39.909
609 203 2 0.5564 33.048 3.008 39.777
610 204 1 -1.1128 4.967 2.385 29.947
611 204 2 0.5564 5.181 1.479 29.723
612 204 2 0.5564 5.628 2.636 30.592
613 205 1 -1.1128 23.97 8.814 24.59
614 205 2 0.5564 24.466 8.343 25.26
615 205 2 0.5564 24.514 8.757 23.804
616 206 1 -1.1128 20.148 22.769 40.821
617 206 2 0.5564 21.087 22.741 40.637
618 206 2 0.5564 19.985 23.67 41.101
619 207 1 -1.1128 3.095 29.068 28.213
620 207 2 0.5564 3.22 28.879 27.283
621 207 2 0.5564 2.161 28.923 28.363
622 208 1 -1.1128 17.681 33.059 17.574
623 208 2 0.5564 17.569 33.426 16.697
624 208 2 0.5564 18.526 33.398 17.87
625 209 1 -1.1128 33.956 40.714 34.107
626 209 2 0.5564 33.179 41.133 34.478
627 209 2 0.5564 33.644 40.299 33.302
628 210 1 -1.1128 39.58 27.08 0.729
629 210 2 0.5564 38.972 26.743 0.071
630 210 2 0.5564 39.265 26.714 1.556
631 211 1 -1.1128 42 12.129 32.128
632 211 2 0.5564 41.836 13.053 32.318
633 211 2 0.5564 41.631 11.661 32.877
634 212 1 -1.1128 25.458 6.907 36.651
635 212 2 0.5564 25.902 6.159 37.051
636 212 2 0.5564 26.063 7.212 35.975
637 213 1 -1.1128 4.593 35.876 42
638 213 2 0.5564 4.299 36.752 41.748
639 213 2 0.5564 5.542 35.897 41.878
640 214 1 -1.1128 36.089 21.307 26.27
641 214 2 0.5564 35.201 21.59 26.491
642 214 2 0.5564 36.021 20.356 26.18
643 215 1 -1.1128 8.425 36.649 0.53
644 215 2 0.5564 8.435 37.445 -0.001
645 215 2 0.5564 9.244 36.204 0.311
646 216 1 -1.1128 27.779 33.553 31.995
647 216 2 0.5564 26.866 33.839 31.995
648 216 2 0.5564 28.285 34.365 31.994
649 217 1 -1.1128 40.335 16.208 38.282
650 217 2 0.5564 40.533 16.507 39.17
651 217 2 0.5564 40.717 15.331 38.233
652 218 1 -1.1128 18.417 10.154 22.321
653 218 2 0.5564 17.522 10.068 21.991
654 218 2 0.5564 18.347 10.776 23.045
655 219 1 -1.1128 1.416 25.419 21.455
656 219 2 0.5564 0.718 25.485 20.803
657 219 2 0.5564 0.958 25.381 22.294
658 220 1 -1.1128 24.949 5.131 5.538
659 220 2 0.5564 24.162 4.753 5.929
660 220 2 0.5564 25.41 4.383 5.157
661 221 1 -1.1128 0.009 27.811 3.284
662 221 2 0.5564 0.109 28.72 3.567
663 221 2 0.5564 0 27.306 4.097
664 222 1 -1.1128 28.813 28.493 23.598
665 222 2 0.5564 29.209 27.794 24.119
666 222 2 0.5564 27.878 28.439 23.795
667 223 1 -1.1128 22.307 1.844 32.803
668 223 2 0.5564 22.899 1.953 33.547
669 223 2 0.5564 22.869 1.535 32.093
670 224 1 -1.1128 33.66 31.757 19.317
671 224 2 0.5564 34.444 32.233 19.043
672 224 2 0.5564 33.838 31.504 20.223
673 225 1 -1.1128 28.916 37.899 14.86
674 225 2 0.5564 29.658 37.306 14.746
675 225 2 0.5564 28.148 37.327 14.854
676 226 1 -1.1128 37.329 11.777 11.942
677 226 2 0.5564 36.48 12.17 11.744
678 226 2 0.5564 37.881 12.01 11.195
679 227 1 -1.1128 33.216 9.305 24.529
680 227 2 0.5564 33.89 9.109 25.18
681 227 2 0.5564 33.435 8.748 23.782
682 228 1 -1.1128 18.789 6.093 8.751
683 228 2 0.5564 18.105 5.425 8.705
684 228 2 0.5564 19.41 5.848 8.065
685 229 1 -1.1128 13.416 6.337 1.151
686 229 2 0.5564 13.926 6.966 0.64
687 229 2 0.5564 12.836 5.923 0.512
688 230 1 -1.1128 42.001 24.502 34.546
689 230 2 0.5564 41.15 24.064 34.533
690 230 2 0.5564 41.79 25.433 34.614
691 231 1 -1.1128 3.087 13.777 31.704
692 231 2 0.5564 3.887 13.277 31.542
693 231 2 0.5564 3.391 14.671 31.864
694 232 1 -1.1128 5.846 28.654 0.575
695 232 2 0.5564 5.077 29.186 0.78
696 232 2 0.5564 6.034 28.182 1.386
697 233 1 -1.1128 10.793 32.668 31.463
698 233 2 0.5564 11.095 31.76 31.477
699 233 2 0.5564 9.884 32.623 31.759
700 234 1 -1.1128 29.19 8.135 28.264
701 234 2 0.5564 29.857 8.794 28.07
702 234 2 0.5564 28.393 8.641 28.427
703 235 1 -1.1128 19.197 27.485 38.06
704 235 2 0.5564 18.646 27.994 38.654
705 235 2 0.5564 19.851 28.109 37.744
706 236 1 -1.1128 6.785 35.486 32.534
707 236 2 0.5564 6.188 34.745 32.433
708 236 2 0.5564 7.621 35.09 32.779
709 237 1 -1.1128 9.957 39.509 10.962
710 237 2 0.5564 9.918 39.915 11.828
711 237 2 0.5564 9.967 38.568 11.138
712 238 1 -1.1128 17.961 1.853 9.771
713 238 2 0.5564 17.615 2.737 9.648
714 238 2 0.5564 18.906 1.977 9.867
715 239 1 -1.1128 19.868 20.797 41.756
716 239 2 0.5564 20.767 21.018 42
717 239 2 0.5564 19.961 20.204 41.01
718 240 1 -1.1128 26.778 24.756 38.396
719 240 2 0.5564 25.863 24.954 38.198
720 240 2 0.5564 26.998 24.029 37.814
721 241 1 -1.1128 36.9 19.702 21.492
722 241 2 0.5564 37.685 19.171 21.626
723 241 2 0.5564 36.203 19.065 21.336
724 242 1 -1.1128 14.45 9.716 5.306
725 242 2 0.5564 15.19 9.36 4.814
726 242 2 0.5564 14.215 10.518 4.838
727 243 1 -1.1128 26.072 28.056 19.194
728 243 2 0.5564 26.864 28.369 18.757
729 243 2 0.5564 25.804 27.291 18.685
730 244 1 -1.1128 4.819 39.133 7.141
731 244 2 0.5564 4.614 40.001 6.792
732 244 2 0.5564 3.987 38.812 7.489
733 245 1 -1.1128 24.19 14.358 13.497
734 245 2 0.5564 23.707 13.731 12.958
735 245 2 0.5564 25.105 14.09 13.415
736 246 1 -1.1128 30.204 25.292 3.593
737 246 2 0.5564 29.861 25.097 2.721
738 246 2 0.5564 29.427 25.468 4.123
739 247 1 -1.1128 18.168 35.089 39.958
740 247 2 0.5564 17.37 35.137 40.483
741 247 2 0.5564 17.87 35.21 39.056
742 248 1 -1.1128 10.472 30.076 3.601
743 248 2 0.5564 9.825 30.776 3.509
744 248 2 0.5564 9.96 29.306 3.847
745 249 1 -1.1128 10.945 11.483 41.08
746 249 2 0.5564 11.599 10.788 41.021
747 249 2 0.5564 11.256 12.046 41.79
748 250 1 -1.1128 8.712 23.53 32.505
749 250 2 0.5564 9.23 23.179 31.781
750 250 2 0.5564 8.451 24.403 32.212
751 251 1 -1.1128 21.234 33.272 20.152
752 251 2 0.5564 21.389 34.075 20.65
753 251 2 0.5564 20.933 33.575 19.295
754 252 1 -1.1128 32.294 20.976 5.945
755 252 2 0.5564 32.887 21.707 5.766
756 252 2 0.5564 32.86 20.288 6.296
757 253 1 -1.1128 20.004 3.746 15.267
758 253 2 0.5564 20.701 3.103 15.135
759 253 2 0.5564 20.424 4.592 15.107
760 254 1 -1.1128 2.992 24.478 10.938
761 254 2 0.5564 2.785 24.674 10.025
762 254 2 0.5564 3.619 25.155 11.193
763 255 1 -1.1128 9.431 35.882 35.408
764 255 2 0.5564 9.643 35.495 36.257
765 255 2 0.5564 10.254 35.856 34.92
766 256 1 -1.1128 36.364 41.224 11.588
767 256 2 0.5564 35.884 42 11.879
768 256 2 0.5564 37.264 41.376 11.875
769 257 1 -1.1128 29.635 36.679 17.167
770 257 2 0.5564 30.475 36.803 16.725
771 257 2 0.5564 29.511 35.729 17.182
772 258 1 -1.1128 0.656 37.292 14.287
773 258 2 0.5564 0.027 37.966 14.546
774 258 2 0.5564 0.227 36.826 13.569
775 259 1 -1.1128 30.642 35.073 30.586
776 259 2 0.5564 29.934 35.498 31.069
777 259 2 0.5564 30.862 35.691 29.889
778 260 1 -1.1128 1.61 9.184 38.077
779 260 2 0.5564 2.362 9.775 38.069
780 260 2 0.5564 1.986 8.32 38.244
781 261 1 -1.1128 6.081 36.44 1.021
782 261 2 0.5564 6.253 36.12 0.135
783 261 2 0.5564 6.642 35.904 1.582
784 262 1 -1.1128 18.984 33.004 11.831
785 262 2 0.5564 18.082 33.314 11.756
786 262 2 0.5564 19.469 33.756 12.172