LAMMPS Data File for Mixture of Hexane and Water

4501 atoms
3000 bonds
1500 angles
0 dihedrals

3 atom types 
2 bond types 
2 angle types 
1 dihedral types 

-2.0 34.0 xlo xhi
-2.0 34.0 ylo yhi
-2.0 34.0 zlo zhi


Masses 

1 15.9994
2 1.0079
3 16.0425

Bond Coeffs 

1 200.0 0.9572
2 300.0 1.54

Angle Coeffs 

1 200.0 104.52
2 62.1 114.0

Dihedral Coeffs 

1 1.411 -0.271 3.145 0.0

Atoms 

1 1 1 -1.1128 1.267 4.097 23.38
2 1 2 0.5564 1.393 3.49 22.65
3 1 2 0.5564 0.322 4.095 23.533
4 2 1 -1.1128 6.673 23.525 19.858
5 2 2 0.5564 7.149 24.207 20.331
6 2 2 0.5564 5.755 23.668 20.089
7 3 1 -1.1128 11.956 13.089 21.137
8 3 2 0.5564 12.673 12.775 21.687
9 3 2 0.5564 11.558 12.293 20.784
10 4 1 -1.1128 23.336 17.547 23.531
11 4 2 0.5564 22.425 17.479 23.817
12 4 2 0.5564 23.512 18.487 23.509
13 5 1 -1.1128 10.259 32.004 10.753
14 5 2 0.5564 9.835 31.788 11.584
15 5 2 0.5564 9.563 31.92 10.1
16 6 1 -1.1128 8.351 19.277 1.616
17 6 2 0.5564 9.038 18.944 2.194
18 6 2 0.5564 8.49 20.224 1.6
19 7 1 -1.1128 30.769 10.046 29.568
20 7 2 0.5564 31.638 10.048 29.167
21 7 2 0.5564 30.167 10.19 28.837
22 8 1 -1.1128 2.328 23.694 8.28
23 8 2 0.5564 2.26 23.864 7.34
24 8 2 0.5564 2.356 22.74 8.35
25 9 1 -1.1128 15.802 2.229 27.808
26 9 2 0.5564 15.85 3.185 27.826
27 9 2 0.5564 14.864 2.037 27.791
28 10 1 -1.1128 17.712 2.709 26.712
29 10 2 0.5564 18.118 2.604 27.573
30 10 2 0.5564 17.619 3.656 26.605
31 11 1 -1.1128 24.671 0.36 29.997
32 11 2 0.5564 23.93 0.243 30.592
33 11 2 0.5564 24.615 1.275 29.721
34 12 1 -1.1128 13.741 18.99 9.954
35 12 2 0.5564 13.468 19.907 9.916
36 12 2 0.5564 13.834 18.729 9.038
37 13 1 -1.1128 1.289 0.621 24.729
38 13 2 0.5564 1.311 1.576 24.798
39 13 2 0.5564 1.969 0.321 25.332
40 14 1 -1.1128 20.017 13.618 29.212
41 14 2 0.5564 19.683 13.782 30.094
42 14 2 0.5564 19.234 13.454 28.686
43 15 1 -1.1128 31.543 24.508 5.628
44 15 2 0.5564 32.003 25.017 6.296
45 15 2 0.5564 32.01 23.673 5.598
46 16 1 -1.1128 20.989 16.369 19.951
47 16 2 0.5564 21.355 17.105 19.46
48 16 2 0.5564 20.614 15.797 19.281
49 17 1 -1.1128 23.514 20.111 12.188
50 17 2 0.5564 22.683 19.663 12.347
51 17 2 0.5564 24.166 19.576 12.643
52 18 1 -1.1128 20.087 20.228 14.425
53 18 2 0.5564 19.239 20.598 14.18
54 18 2 0.5564 19.903 19.7 15.202
55 19 1 -1.1128 15.498 21.104 26.392
56 19 2 0.5564 16.328 20.652 26.243
57 19 2 0.5564 15.276 21.486 25.543
58 20 1 -1.1128 31.413 27.487 20.98
59 20 2 0.5564 32.001 26.74 20.864
60 20 2 0.5564 31.998 28.236 21.099
61 21 1 -1.1128 6.772 12.256 23.123
62 21 2 0.5564 6.906 12.572 22.23
63 21 2 0.5564 6.366 12.993 23.58
64 22 1 -1.1128 31.973 11.831 7.682
65 22 2 0.5564 31.06 11.708 7.42
66 22 2 0.5564 31.999 11.549 8.597
67 23 1 -1.1128 12.656 13.4 14.947
68 23 2 0.5564 12.088 12.723 15.314
69 23 2 0.5564 13.542 13.118 15.173
70 24 1 -1.1128 22.425 29.664 3.237
71 24 2 0.5564 22.229 28.772 3.524
72 24 2 0.5564 21.567 30.073 3.123
73 25 1 -1.1128 15.682 3.161 30.02
74 25 2 0.5564 16.53 3.601 30.08
75 25 2 0.5564 15.046 3.828 30.28
76 26 1 -1.1128 20.438 4.448 21.492
77 26 2 0.5564 19.737 4.093 20.945
78 26 2 0.5564 21.24 4.265 21.003
79 27 1 -1.1128 15.054 28.073 25.177
80 27 2 0.5564 15.009 28.12 26.132
81 27 2 0.5564 15.31 28.954 24.905
82 28 1 -1.1128 1.064 29.217 18.583
83 28 2 0.5564 0.528 28.431 18.682
84 28 2 0.5564 1.959 28.889 18.499
85 29 1 -1.1128 17.075 18.535 1.575
86 29 2 0.5564 17.388 19.439 1.544
87 29 2 0.5564 17.873 18.005 1.584
88 30 1 -1.1128 7.246 8.453 8.913
89 30 2 0.5564 6.481 7.953 9.199
90 30 2 0.5564 6.939 8.946 8.152
91 31 1 -1.1128 21.543 3.483 2.737
92 31 2 0.5564 21.249 2.594 2.541
93 31 2 0.5564 22.393 3.556 2.303
94 32 1 -1.1128 9.93 25.019 19.492
95 32 2 0.5564 9.125 24.506 19.415
96 32 2 0.5564 9.643 25.867 19.833
97 33 1 -1.1128 21.688 20.891 20.544
98 33 2 0.5564 20.734 20.974 20.533
99 33 2 0.5564 21.858 20.162 21.14
100 34 1 -1.1128 26.356 12.966 8.204
101 34 2 0.5564 25.67 12.499 7.727
102 34 2 0.5564 27.155 12.47 8.023
103 35 1 -1.1128 2.292 14.194 2.008
104 35 2 0.5564 2.621 15.085 1.895
105 35 2 0.5564 2.796 13.843 2.742
106 36 1 -1.1128 2.03 11.518 24.167
107 36 2 0.5564 1.519 12.258 24.496
108 36 2 0.5564 1.634 11.311 23.32
109 37 1 -1.1128 1.884 25.128 22.462
110 37 2 0.5564 2.839 25.166 22.509
111 37 2 0.5564 1.626 24.615 23.229
112 38 1 -1.1128 20.871 23.31 25.278
113 38 2 0.5564 20.443 23.603 26.082
114 38 2 0.5564 21.049 22.381 25.426
115 39 1 -1.1128 1.546 20.32 7.864
116 39 2 0.5564 1.007 21.004 8.261
117 39 2 0.5564 2.444 20.556 8.099
118 40 1 -1.1128 17.74 12.226 4.176
119 40 2 0.5564 17.756 11.309 4.451
120 40 2 0.5564 17.164 12.236 3.411
121 41 1 -1.1128 0.799 4.002 8.407
122 41 2 0.5564 1.173 3.125 8.496
123 41 2 0.5564 0 3.976 8.934
124 42 1 -1.1128 3.93 16.229 22.191
125 42 2 0.5564 3.129 15.978 22.651
126 42 2 0.5564 3.627 16.565 21.347
127 43 1 -1.1128 21.35 5.517 11.483
128 43 2 0.5564 22.174 5.525 11.97
129 43 2 0.5564 21.549 5.978 10.668
130 44 1 -1.1128 2.63 18.53 29.72
131 44 2 0.5564 1.88 18.235 30.236
132 44 2 0.5564 3.379 18.073 30.102
133 45 1 -1.1128 10.996 8.968 20.299
134 45 2 0.5564 11.906 8.972 20.001
135 45 2 0.5564 11.034 8.595 21.18
136 46 1 -1.1128 31.695 6.845 8.53
137 46 2 0.5564 30.806 6.494 8.482
138 46 2 0.5564 31.999 6.852 7.622
139 47 1 -1.1128 22.386 17.872 14.945
140 47 2 0.5564 22.959 17.557 14.246
141 47 2 0.5564 21.974 17.08 15.291
142 48 1 -1.1128 14.727 26.535 0.434
143 48 2 0.5564 14.41 25.744 -0.001
144 48 2 0.5564 15.613 26.658 0.092
145 49 1 -1.1128 9.153 7.961 6.926
146 49 2 0.5564 9.25 7.469 7.742
147 49 2 0.5564 8.923 8.847 7.206
148 50 1 -1.1128 13.771 29.762 13.31
149 50 2 0.5564 13.451 30.663 13.341
150 50 2 0.5564 12.988 29.234 13.156
151 51 1 -1.1128 13.846 26.592 9.449
152 51 2 0.5564 13.537 25.735 9.742
153 51 2 0.5564 14.8 26.534 9.501
154 52 1 -1.1128 29.982 10.648 23.515
155 52 2 0.5564 29.245 10.049 23.391
156 52 2 0.5564 30.424 10.662 22.666
157 53 1 -1.1128 25.843 17.427 6.827
158 53 2 0.5564 25.913 17.215 7.758
159 53 2 0.5564 24.933 17.698 6.71
160 54 1 -1.1128 1.883 3.613 17.451
161 54 2 0.5564 1.899 4.509 17.115
162 54 2 0.5564 2.561 3.158 16.953
163 55 1 -1.1128 15.469 16.102 2.161
164 55 2 0.5564 16.274 16.608 2.268
165 55 2 0.5564 14.842 16.522 2.75
166 56 1 -1.1128 0.426 18.56 19.954
167 56 2 0.5564 1.339 18.645 20.231
168 56 2 0.5564 -0.003 18.106 20.68
169 57 1 -1.1128 25.056 7.215 31.15
170 57 2 0.5564 25.914 7.407 30.772
171 57 2 0.5564 25.202 6.443 31.698
172 58 1 -1.1128 4.895 30.872 14.906
173 58 2 0.5564 4.241 31.195 14.286
174 58 2 0.5564 5.658 31.432 14.763
175 59 1 -1.1128 23.002 12.799 0.816
176 59 2 0.5564 22.66 12.434 0
177 59 2 0.5564 22.367 13.473 1.061
178 60 1 -1.1128 3.189 14.259 12.629
179 60 2 0.5564 3.107 15.213 12.643
180 60 2 0.5564 4.021 14.084 13.069
181 61 1 -1.1128 8.586 21.22 11.84
182 61 2 0.5564 8.543 21.152 12.794
183 61 2 0.5564 8.324 20.355 11.525
184 62 1 -1.1128 5.85 8.529 31.14
185 62 2 0.5564 5.933 7.592 31.316
186 62 2 0.5564 6.72 8.795 30.842
187 63 1 -1.1128 5.72 3.12 5.912
188 63 2 0.5564 6.543 2.63 5.911
189 63 2 0.5564 5.04 2.446 5.912
190 64 1 -1.1128 0.941 23.315 25.815
191 64 2 0.5564 1.464 22.519 25.914
192 64 2 0.5564 0.034 23.012 25.851
193 65 1 -1.1128 13.704 13.118 17.417
194 65 2 0.5564 14.101 12.25 17.341
195 65 2 0.5564 14.445 13.71 17.543
196 66 1 -1.1128 30.511 13.578 23.567
197 66 2 0.5564 30.146 12.792 23.974
198 66 2 0.5564 29.771 13.978 23.11
199 67 1 -1.1128 12.433 4.736 26.03
200 67 2 0.5564 12.352 5.674 25.857
201 67 2 0.5564 11.883 4.585 26.799
202 68 1 -1.1128 19.834 17.464 9.544
203 68 2 0.5564 19.743 16.511 9.552
204 68 2 0.5564 18.934 17.79 9.517
205 69 1 -1.1128 25.507 28.595 13.006
206 69 2 0.5564 24.75 29.18 13.001
207 69 2 0.5564 25.245 27.868 13.571
208 70 1 -1.1128 4.237 14.349 7.587
209 70 2 0.5564 3.994 14.403 6.663
210 70 2 0.5564 5.155 14.622 7.61
211 71 1 -1.1128 16.961 11.328 0.769
212 71 2 0.5564 16.521 11.688 -0.001
213 71 2 0.5564 17.746 11.867 0.871
214 72 1 -1.1128 2.213 16.834 18.146
215 72 2 0.5564 2.927 16.203 18.228
216 72 2 0.5564 1.824 16.873 19.02
217 73 1 -1.1128 4.938 18.245 19.616
218 73 2 0.5564 3.981 18.213 19.64
219 73 2 0.5564 5.155 19.132 19.9
220 74 1 -1.1128 17.212 8.413 12.807
221 74 2 0.5564 17.586 8.209 11.95
222 74 2 0.5564 16.783 7.602 13.081
223 75 1 -1.1128 9.576 26.584 8.54
224 75 2 0.5564 9.625 27.54 8.545
225 75 2 0.5564 10.465 26.297 8.747
226 76 1 -1.1128 29.67 14.534 26.287
227 76 2 0.5564 29.092 15.176 25.875
228 76 2 0.5564 29.192 14.245 27.064
229 77 1 -1.1128 28.855 23.683 18.891
230 77 2 0.5564 29.187 23.324 18.068
231 77 2 0.5564 29.574 24.222 19.224
232 78 1 -1.1128 31.19 21.362 2.801
233 78 2 0.5564 31.871 20.713 2.622
234 78 2 0.5564 30.38 20.854 2.843
235 79 1 -1.1128 8.966 32.004 21.333
236 79 2 0.5564 8.676 31.134 21.058
237 79 2 0.5564 9.391 31.859 22.179
238 80 1 -1.1128 24.275 19.526 21.356
239 80 2 0.5564 25.211 19.727 21.348
240 80 2 0.5564 24.235 18.573 21.434
241 81 1 -1.1128 6.465 3.305 12.044
242 81 2 0.5564 6.694 2.376 12.06
243 81 2 0.5564 5.551 3.332 12.327
244 82 1 -1.1128 17.008 0.581 17.01
245 82 2 0.5564 17.769 0 17.018
246 82 2 0.5564 16.263 0 16.862
247 83 1 -1.1128 28.363 21.651 11.991
248 83 2 0.5564 27.854 21.85 11.205
249 83 2 0.5564 28.279 20.703 12.097
250 84 1 -1.1128 24.103 12.086 23.113
251 84 2 0.5564 24.972 11.904 23.472
252 84 2 0.5564 23.704 12.685 23.744
253 85 1 -1.1128 13.676 29.488 10.816
254 85 2 0.5564 12.764 29.237 10.968
255 85 2 0.5564 14.148 28.657 10.764
256 86 1 -1.1128 5.983 29.184 17.899
257 86 2 0.5564 6.238 29.964 18.392
258 86 2 0.5564 6.736 28.598 17.973
259 87 1 -1.1128 22.775 26.371 0.906
260 87 2 0.5564 22.892 25.478 0.582
261 87 2 0.5564 23.66 26.736 0.928
262 88 1 -1.1128 25.909 26.834 24.014
263 88 2 0.5564 25.568 27.166 23.184
264 88 2 0.5564 26.811 27.154 24.048
265 89 1 -1.1128 0.279 25.814 17.969
266 89 2 0.5564 0.466 25.004 17.495
267 89 2 0.5564 0.049 25.527 18.853
268 90 1 -1.1128 31.453 27.647 14.804
269 90 2 0.5564 31.999 26.897 15.042
270 90 2 0.5564 31.999 28.41 14.993
271 91 1 -1.1128 24.128 27.606 26.137
272 91 2 0.5564 23.439 27.043 25.783
273 91 2 0.5564 24.922 27.074 26.086
274 92 1 -1.1128 10.764 22.86 12.776
275 92 2 0.5564 10.882 21.937 13
276 92 2 0.5564 9.981 22.876 12.226
277 93 1 -1.1128 28.607 4.192 31.634
278 93 2 0.5564 29.08 3.445 32
279 93 2 0.5564 28.254 3.87 30.805
280 94 1 -1.1128 30.452 8.007 10.573
281 94 2 0.5564 29.532 7.744 10.589
282 94 2 0.5564 30.938 7.182 10.567
283 95 1 -1.1128 8.852 16.519 21.54
284 95 2 0.5564 9.753 16.223 21.408
285 95 2 0.5564 8.331 15.716 21.526
286 96 1 -1.1128 30.576 10.507 9.912
287 96 2 0.5564 31.325 9.911 9.901
288 96 2 0.5564 29.819 9.944 9.746
289 97 1 -1.1128 31.404 17.049 11.321
290 97 2 0.5564 32.004 17.199 12.051
291 97 2 0.5564 31.974 16.819 10.586
292 98 1 -1.1128 1.662 28.159 22.624
293 98 2 0.5564 1.891 28.756 23.337
294 98 2 0.5564 0.709 28.227 22.552
295 99 1 -1.1128 25.085 30.289 6.431
296 99 2 0.5564 25.579 30.39 5.617
297 99 2 0.5564 25.698 30.552 7.118
298 100 1 -1.1128 23.644 25.204 6.217
299 100 2 0.5564 24.484 25.657 6.147
300 100 2 0.5564 22.99 25.898 6.13
301 101 1 -1.1128 17.602 12.833 16.928
302 101 2 0.5564 18.467 12.648 17.294
303 101 2 0.5564 17.458 12.136 16.288
304 102 1 -1.1128 7.928 16.495 19.509
305 102 2 0.5564 7.955 15.575 19.246
306 102 2 0.5564 7.074 16.599 19.929
307 103 1 -1.1128 13.585 20.615 29.375
308 103 2 0.5564 12.716 20.998 29.26
309 103 2 0.5564 14.178 21.233 28.948
310 104 1 -1.1128 7.331 7.225 22.145
311 104 2 0.5564 6.379 7.161 22.221
312 104 2 0.5564 7.504 8.164 22.078
313 105 1 -1.1128 9.01 25.336 6.747
314 105 2 0.5564 8.875 26.09 6.172
315 105 2 0.5564 9.961 25.262 6.825
316 106 1 -1.1128 13.265 14.804 31.528
317 106 2 0.5564 13.878 14.666 30.805
318 106 2 0.5564 13.49 15.668 31.872
319 107 1 -1.1128 17.099 11.832 18.821
320 107 2 0.5564 16.149 11.817 18.7
321 107 2 0.5564 17.409 11.046 18.37
322 108 1 -1.1128 15.612 8.352 4.318
323 108 2 0.5564 15.304 7.446 4.347
324 108 2 0.5564 16.567 8.28 4.301
325 109 1 -1.1128 6.134 30.931 3.088
326 109 2 0.5564 5.275 31.317 3.257
327 109 2 0.5564 5.95 30.011 2.896
328 110 1 -1.1128 29.495 3.2 16.466
329 110 2 0.5564 29.112 2.573 15.852
330 110 2 0.5564 28.764 3.466 17.024
331 111 1 -1.1128 17.658 19.884 3.941
332 111 2 0.5564 18.598 19.91 4.121
333 111 2 0.5564 17.486 18.975 3.692
334 112 1 -1.1128 1.195 14.831 24.35
335 112 2 0.5564 0.932 15.002 23.446
336 112 2 0.5564 2.127 15.052 24.375
337 113 1 -1.1128 27.656 0 14.784
338 113 2 0.5564 28.212 0 14.004
339 113 2 0.5564 26.763 0.049 14.442
340 114 1 -1.1128 7.972 11.789 29.994
341 114 2 0.5564 7.913 10.888 29.676
342 114 2 0.5564 7.081 12.13 29.916
343 115 1 -1.1128 10.707 31.365 5.629
344 115 2 0.5564 10.212 31.9 6.248
345 115 2 0.5564 11.485 31.886 5.429
346 116 1 -1.1128 8.607 10.372 20.855
347 116 2 0.5564 8.992 9.522 21.069
348 116 2 0.5564 9.342 10.894 20.531
349 117 1 -1.1128 19.422 4.375 27.64
350 117 2 0.5564 20.292 3.998 27.773
351 117 2 0.5564 19.589 5.223 27.227
352 118 1 -1.1128 29.346 31.516 0
353 118 2 0.5564 28.39 31.508 0.046
354 118 2 0.5564 29.599 30.599 0.105
355 119 1 -1.1128 6.04 14.035 26.843
356 119 2 0.5564 5.942 14.104 25.893
357 119 2 0.5564 5.382 13.391 27.106
358 120 1 -1.1128 30.208 25.636 16.677
359 120 2 0.5564 30.806 24.961 16.354
360 120 2 0.5564 30.761 26.409 16.793
361 121 1 -1.1128 22.184 2.935 10.639
362 121 2 0.5564 21.934 3.397 11.44
363 121 2 0.5564 23.141 2.944 10.646
364 122 1 -1.1128 0.507 17.538 23.868
365 122 2 0.5564 0.548 16.918 24.596
366 122 2 0.5564 1.144 17.206 23.235
367 123 1 -1.1128 20.444 2.157 13.531
368 123 2 0.5564 20.314 2.57 12.677
369 123 2 0.5564 19.565 2.096 13.904
370 124 1 -1.1128 17.679 14.216 25.413
371 124 2 0.5564 18.494 13.994 24.963
372 124 2 0.5564 17.737 13.76 26.253
373 125 1 -1.1128 25.849 4.434 5.946
374 125 2 0.5564 26.721 4.038 5.944
375 125 2 0.5564 25.248 3.69 5.984
376 126 1 -1.1128 17.654 30.785 9.124
377 126 2 0.5564 18.59 30.585 9.127
378 126 2 0.5564 17.501 31.205 8.277
379 127 1 -1.1128 8.014 -0.004 29.361
380 127 2 0.5564 7.83 0.9 29.103
381 127 2 0.5564 8.817 0.053 29.878
382 128 1 -1.1128 0.005 28.891 7.795
383 128 2 0.5564 0.302 28.573 6.942
384 128 2 0.5564 0.007 29.844 7.71
385 129 1 -1.1128 30.722 12.261 20.815
386 129 2 0.5564 30.703 12.649 19.94
387 129 2 0.5564 29.851 11.879 20.927
388 130 1 -1.1128 28.729 17.961 10.145
389 130 2 0.5564 29.67 17.96 10.32
390 130 2 0.5564 28.365 17.346 10.783
391 131 1 -1.1128 3.291 6.928 12.75
392 131 2 0.5564 2.842 6.647 11.953
393 131 2 0.5564 2.8 7.696 13.044
394 132 1 -1.1128 26.269 1.746 21.072
395 132 2 0.5564 26.635 2.608 20.877
396 132 2 0.5564 26.756 1.447 21.84
397 133 1 -1.1128 1.91 13.464 5.356
398 133 2 0.5564 1.445 14.259 5.618
399 133 2 0.5564 2.728 13.781 4.973
400 134 1 -1.1128 5.823 14.054 31.926
401 134 2 0.5564 5.047 13.556 31.667
402 134 2 0.5564 6.516 13.397 31.998
403 135 1 -1.1128 19.127 15.272 20.813
404 135 2 0.5564 18.795 16.101 21.159
405 135 2 0.5564 18.372 14.684 20.831
406 136 1 -1.1128 13.453 9.514 31.867
407 136 2 0.5564 14.244 8.979 31.804
408 136 2 0.5564 13.259 9.763 30.964
409 137 1 -1.1128 8.428 6.84 10.1
410 137 2 0.5564 7.981 7.419 10.718
411 137 2 0.5564 7.752 6.223 9.817
412 138 1 -1.1128 26.878 26.502 11.052
413 138 2 0.5564 27.697 26.974 10.897
414 138 2 0.5564 26.195 27.16 10.926
415 139 1 -1.1128 0.988 20.132 12.906
416 139 2 0.5564 1.035 21.067 12.707
417 139 2 0.5564 0.069 19.98 13.126
418 140 1 -1.1128 11.158 6.676 17.515
419 140 2 0.5564 11.488 7.572 17.569
420 140 2 0.5564 10.21 6.763 17.62
421 141 1 -1.1128 10.33 7.184 26.588
422 141 2 0.5564 11.2 7.491 26.333
423 141 2 0.5564 10.455 6.259 26.801
424 142 1 -1.1128 0.562 30.05 26.828
425 142 2 0.5564 0.673 29.109 26.968
426 142 2 0.5564 1.452 30.402 26.844
427 143 1 -1.1128 2.644 4.74 3.228
428 143 2 0.5564 2.396 5.537 2.76
429 143 2 0.5564 3.601 4.726 3.188
430 144 1 -1.1128 9.303 10.758 23.546
431 144 2 0.5564 8.967 11.296 22.829
432 144 2 0.5564 9.214 9.858 23.232
433 145 1 -1.1128 15.953 1.347 32.001
434 145 2 0.5564 15.007 1.275 31.873
435 145 2 0.5564 16.125 2.289 31.99
436 146 1 -1.1128 8.418 4.616 12.134
437 146 2 0.5564 9.255 4.332 12.502
438 146 2 0.5564 8.567 5.525 11.872
439 147 1 -1.1128 19.499 23.138 0.159
440 147 2 0.5564 20.432 22.976 0.015
441 147 2 0.5564 19.439 24.083 0.301
442 148 1 -1.1128 2.714 20.33 20.537
443 148 2 0.5564 2.059 21.01 20.375
444 148 2 0.5564 3.551 20.793 20.512
445 149 1 -1.1128 3.159 4.473 8.17
446 149 2 0.5564 3.32 3.602 8.532
447 149 2 0.5564 4.028 4.868 8.097
448 150 1 -1.1128 19.835 23.306 4.114
449 150 2 0.5564 19.968 24.253 4.155
450 150 2 0.5564 20.616 22.974 3.671
451 151 1 -1.1128 12.446 22.64 30.707
452 151 2 0.5564 12.436 23.474 31.177
453 151 2 0.5564 11.595 22.6 30.271
454 152 1 -1.1128 15.727 18.21 20.518
455 152 2 0.5564 16.663 18.413 20.517
456 152 2 0.5564 15.296 19.065 20.503
457 153 1 -1.1128 23.55 10.454 21.744
458 153 2 0.5564 22.685 10.179 22.048
459 153 2 0.5564 23.373 11.162 21.124
460 154 1 -1.1128 9.425 5.686 2.351
461 154 2 0.5564 8.572 5.252 2.35
462 154 2 0.5564 10.054 4.98 2.2
463 155 1 -1.1128 19.87 0.716 10.252
464 155 2 0.5564 20.499 0 10.155
465 155 2 0.5564 19.032 0.279 10.404
466 156 1 -1.1128 10.404 18.359 17.369
467 156 2 0.5564 11.166 18.768 16.96
468 156 2 0.5564 10.608 17.423 17.375
469 157 1 -1.1128 8.605 24.784 26.239
470 157 2 0.5564 8.776 24.297 27.046
471 157 2 0.5564 9.009 25.639 26.386
472 158 1 -1.1128 5.513 6.486 24.128
473 158 2 0.5564 6.417 6.69 24.369
474 158 2 0.5564 5.072 7.335 24.106
475 159 1 -1.1128 1.575 26.597 29.663
476 159 2 0.5564 1.702 26.716 28.722
477 159 2 0.5564 2.08 25.813 29.876
478 160 1 -1.1128 26.067 30.043 21.132
479 160 2 0.5564 26.548 30.849 20.944
480 160 2 0.5564 25.169 30.229 20.858
481 161 1 -1.1128 18.556 25.542 26.855
482 161 2 0.5564 18.557 24.911 27.575
483 161 2 0.5564 18.439 25.009 26.068
484 162 1 -1.1128 4.772 23.249 15.64
485 162 2 0.5564 5.319 22.471 15.531
486 162 2 0.5564 5.395 23.964 15.771
487 163 1 -1.1128 5.888 5.108 25.803
488 163 2 0.5564 4.999 4.787 25.652
489 163 2 0.5564 6.423 4.316 25.862
490 164 1 -1.1128 10.723 30.072 19.299
491 164 2 0.5564 9.856 30.478 19.322
492 164 2 0.5564 11.326 30.785 19.509
493 165 1 -1.1128 24.667 16.994 4.195
494 165 2 0.5564 25.28 16.616 4.826
495 165 2 0.5564 23.857 17.116 4.69
496 166 1 -1.1128 29.383 19.51 28.677
497 166 2 0.5564 28.526 19.837 28.403
498 166 2 0.5564 29.932 20.292 28.73
499 167 1 -1.1128 0.331 2.105 27.196
500 167 2 0.5564 0.333 1.262 26.743
501 167 2 0.5564 0.898 2.664 26.665
502 168 1 -1.1128 9.964 11.975 10.277
503 168 2 0.5564 10.242 11.31 9.647
504 168 2 0.5564 10.171 11.596 11.132
505 169 1 -1.1128 21.909 32.004 8.513
506 169 2 0.5564 22.054 31.223 7.978
507 169 2 0.5564 21.194 31.762 9.101
508 170 1 -1.1128 28.575 29.692 8.32
509 170 2 0.5564 27.703 29.406 8.591
510 170 2 0.5564 29.165 29.312 8.972
511 171 1 -1.1128 12.25 18 21.493
512 171 2 0.5564 12.311 18.89 21.146
513 171 2 0.5564 11.333 17.756 21.369
514 172 1 -1.1128 8.585 15.701 5.283
515 172 2 0.5564 8.582 16.551 5.722
516 172 2 0.5564 7.746 15.665 4.823
517 173 1 -1.1128 2.994 11.367 18.602
518 173 2 0.5564 2.838 11.789 19.447
519 173 2 0.5564 3.841 10.934 18.704
520 174 1 -1.1128 0 9.241 23.701
521 174 2 0.5564 0.638 9.361 22.997
522 174 2 0.5564 0.038 10.057 24.2
523 175 1 -1.1128 3.242 23.218 24.828
524 175 2 0.5564 3.495 22.314 24.638
525 175 2 0.5564 3.584 23.723 24.091
526 176 1 -1.1128 30.159 30.321 24.797
527 176 2 0.5564 30.055 30.635 23.899
528 176 2 0.5564 30.962 30.741 25.106
529 177 1 -1.1128 24.308 4.659 24.014
530 177 2 0.5564 25.242 4.817 23.878
531 177 2 0.5564 23.945 5.522 24.212
532 178 1 -1.1128 17.459 2.927 22.13
533 178 2 0.5564 16.567 3.177 22.373
534 178 2 0.5564 17.961 3.739 22.194
535 179 1 -1.1128 7.91 23.154 11.03
536 179 2 0.5564 7.552 22.951 10.166
537 179 2 0.5564 7.179 23.55 11.505
538 180 1 -1.1128 14.103 25.613 29.512
539 180 2 0.5564 13.39 25.73 28.884
540 180 2 0.5564 13.857 24.836 30.013
541 181 1 -1.1128 0.407 12.782 9.824
542 181 2 0.5564 1.235 12.514 10.225
543 181 2 0.5564 0 13.355 10.474
544 182 1 -1.1128 7.522 30.449 11.379
545 182 2 0.5564 7.589 31.2 10.789
546 182 2 0.5564 8.417 30.115 11.445
547 183 1 -1.1128 3.508 4.743 13.328
548 183 2 0.5564 3.569 3.803 13.155
549 183 2 0.5564 2.569 4.928 13.314
550 184 1 -1.1128 7.353 30.523 25.309
551 184 2 0.5564 6.668 30.076 24.811
552 184 2 0.5564 7.713 31.166 24.698
553 185 1 -1.1128 2.363 16.328 31.222
554 185 2 0.5564 2.919 16.284 32
555 185 2 0.5564 2.383 15.442 30.861
556 186 1 -1.1128 4.148 28.896 3.636
557 186 2 0.5564 3.799 29.68 3.212
558 186 2 0.5564 3.538 28.2 3.393
559 187 1 -1.1128 24.783 9.162 13.832
560 187 2 0.5564 23.831 9.119 13.733
561 187 2 0.5564 25.083 8.271 13.653
562 188 1 -1.1128 25.847 10.575 6.674
563 188 2 0.5564 26.243 9.75 6.394
564 188 2 0.5564 25.226 10.324 7.357
565 189 1 -1.1128 5.788 21.088 10.618
566 189 2 0.5564 6.421 21.079 9.9
567 189 2 0.5564 6.223 21.578 11.315
568 190 1 -1.1128 0.743 13.851 3.532
569 190 2 0.5564 0.478 13.139 2.95
570 190 2 0.5564 0.001 14.455 3.526
571 191 1 -1.1128 4.602 8.505 6.354
572 191 2 0.5564 3.833 9.06 6.483
573 191 2 0.5564 5.346 9.098 6.461
574 192 1 -1.1128 25.549 9.834 18.788
575 192 2 0.5564 26.215 9.379 19.303
576 192 2 0.5564 25.291 9.203 18.117
577 193 1 -1.1128 4.082 29.268 12.24
578 193 2 0.5564 3.62 29.337 13.075
579 193 2 0.5564 4.849 28.729 12.433
580 194 1 -1.1128 3.179 5.102 31.724
581 194 2 0.5564 2.26 5.204 31.972
582 194 2 0.5564 3.149 4.753 30.833
583 195 1 -1.1128 16.988 29.003 3.177
584 195 2 0.5564 16.529 29.843 3.195
585 195 2 0.5564 17.916 29.238 3.156
586 196 1 -1.1128 28.94 2.187 18.912
587 196 2 0.5564 29.821 2.285 18.55
588 196 2 0.5564 28.503 1.578 18.317
589 197 1 -1.1128 18.048 7.675 2.684
590 197 2 0.5564 18.12 7.796 1.737
591 197 2 0.5564 18.949 7.533 2.976
592 198 1 -1.1128 9.84 17.232 31.343
593 198 2 0.5564 10.641 17.204 30.82
594 198 2 0.5564 9.293 16.534 30.981
595 199 1 -1.1128 17.599 0.775 24.125
596 199 2 0.5564 17.584 -0.003 24.683
597 199 2 0.5564 18.232 1.358 24.545
598 200 1 -1.1128 16.195 6.051 10.512
599 200 2 0.5564 16.087 6.86 10.012
600 200 2 0.5564 16.671 6.317 11.299
601 201 1 -1.1128 15.451 26.005 20.7
602 201 2 0.5564 14.587 25.98 20.289
603 201 2 0.5564 15.521 26.89 21.058
604 202 1 -1.1128 12.77 27.086 11.413
605 202 2 0.5564 13.159 26.713 12.205
606 202 2 0.5564 11.845 27.201 11.632
607 203 1 -1.1128 12.906 27.804 25.567
608 203 2 0.5564 12.926 27.435 26.45
609 203 2 0.5564 12.281 28.527 25.624
610 204 1 -1.1128 9.983 24.712 14.645
611 204 2 0.5564 9.286 25.348 14.484
612 204 2 0.5564 10.132 24.754 15.59
613 205 1 -1.1128 5.615 16.808 -0.005
614 205 2 0.5564 4.732 16.439 0
615 205 2 0.5564 5.488 17.736 0.192
616 206 1 -1.1128 28.597 26.553 8.061
617 206 2 0.5564 28.349 27.303 8.602
618 206 2 0.5564 29.483 26.755 7.762
619 207 1 -1.1128 2.326 10.4 3.044
620 207 2 0.5564 3.03 10.324 3.689
621 207 2 0.5564 2.153 11.34 2.988
622 208 1 -1.1128 12.755 6.737 9.142
623 208 2 0.5564 11.995 6.599 9.707
624 208 2 0.5564 12.606 6.158 8.395
625 209 1 -1.1128 13.127 12.588 5.856
626 209 2 0.5564 13.641 11.8 5.674
627 209 2 0.5564 13.668 13.307 5.53
628 210 1 -1.1128 3.826 5.936 18.37
629 210 2 0.5564 4.026 5.249 17.734
630 210 2 0.5564 2.902 5.802 18.585
631 211 1 -1.1128 11.834 19.898 11.39
632 211 2 0.5564 11.874 18.982 11.118
633 211 2 0.5564 12.34 19.929 12.202
634 212 1 -1.1128 3.039 24.554 14.321
635 212 2 0.5564 3.111 23.609 14.18
636 212 2 0.5564 3.942 24.87 14.292
637 213 1 -1.1128 21.669 16.419 22.042
638 213 2 0.5564 22.565 16.244 21.757
639 213 2 0.5564 21.289 15.553 22.19
640 214 1 -1.1128 9.824 2.648 22.426
641 214 2 0.5564 10.069 1.904 21.876
642 214 2 0.5564 8.868 2.62 22.456
643 215 1 -1.1128 29.933 22.993 14.841
644 215 2 0.5564 29.02 23.28 14.811
645 215 2 0.5564 29.884 22.058 15.037
646 216 1 -1.1128 15.951 18.379 22.793
647 216 2 0.5564 16.884 18.177 22.727
648 216 2 0.5564 15.523 17.524 22.843
649 217 1 -1.1128 4.333 2.756 30.784
650 217 2 0.5564 4.493 1.853 31.058
651 217 2 0.5564 4.662 3.288 31.509
652 218 1 -1.1128 10.287 6.893 11.579
653 218 2 0.5564 9.681 7.406 12.113
654 218 2 0.5564 11.076 7.433 11.525
655 219 1 -1.1128 15.886 0.47 14.657
656 219 2 0.5564 16.191 1.277 15.072
657 219 2 0.5564 14.985 0.66 14.397
658 220 1 -1.1128 31.512 1.068 19.256
659 220 2 0.5564 31.158 0.344 19.772
660 220 2 0.5564 31.577 0.719 18.366
661 221 1 -1.1128 22.339 20.353 23.769
662 221 2 0.5564 22.007 21.016 23.163
663 221 2 0.5564 22.952 20.828 24.331
664 222 1 -1.1128 5.802 20.32 6.901
665 222 2 0.5564 6.654 20.105 6.521
666 222 2 0.5564 5.987 20.489 7.825
667 223 1 -1.1128 13.846 8.334 10.519
668 223 2 0.5564 14.457 7.901 11.115
669 223 2 0.5564 14.216 9.207 10.389
670 224 1 -1.1128 2.702 20.244 24.824
671 224 2 0.5564 2.352 19.385 24.589
672 224 2 0.5564 3.651 20.124 24.828
673 225 1 -1.1128 11.133 12.964 27.332
674 225 2 0.5564 12.007 13.335 27.451
675 225 2 0.5564 11.01 12.391 28.09
676 226 1 -1.1128 4.91 28.654 25.439
677 226 2 0.5564 4.956 27.871 25.988
678 226 2 0.5564 4.99 29.383 26.053
679 227 1 -1.1128 0.01 20.863 24.308
680 227 2 0.5564 0.213 19.937 24.439
681 227 2 0.5564 0.864 21.287 24.222
682 228 1 -1.1128 10.347 20.929 5.325
683 228 2 0.5564 10.519 20.142 5.842
684 228 2 0.5564 10.539 21.654 5.919
685 229 1 -1.1128 9.503 9.655 18.72
686 229 2 0.5564 9.397 10.502 18.287
687 229 2 0.5564 10.237 9.242 18.265
688 230 1 -1.1128 27.796 6.798 24.082
689 230 2 0.5564 28.144 7.07 24.931
690 230 2 0.5564 27.815 7.594 23.549
691 231 1 -1.1128 31.441 21.603 26.596
692 231 2 0.5564 31.766 20.708 26.698
693 231 2 0.5564 30.518 21.498 26.364
694 232 1 -1.1128 4.626 11.365 20.713
695 232 2 0.5564 3.97 10.775 21.084
696 232 2 0.5564 5.377 11.29 21.302
697 233 1 -1.1128 3.941 0 9.442
698 233 2 0.5564 3.644 0.909 9.391
699 233 2 0.5564 4.806 0.007 9.031
700 234 1 -1.1128 22.219 21.845 31.818
701 234 2 0.5564 21.271 21.899 31.934
702 234 2 0.5564 22.534 22.731 31.999
703 235 1 -1.1128 25.438 0.436 16.619
704 235 2 0.5564 25.989 1.132 16.263
705 235 2 0.5564 25.073 0.001 15.848
706 236 1 -1.1128 15.844 23.204 3.82
707 236 2 0.5564 16.155 22.938 4.685
708 236 2 0.5564 15.979 22.432 3.269
709 237 1 -1.1128 30.541 24.928 8.374
710 237 2 0.5564 30.274 24.985 9.291
711 237 2 0.5564 31.254 25.561 8.291
712 238 1 -1.1128 31.851 5.511 16.842
713 238 2 0.5564 31.912 4.557 16.887
714 238 2 0.5564 32 5.804 17.741
715 239 1 -1.1128 22.306 26.467 23.988
716 239 2 0.5564 22.617 25.563 23.949
717 239 2 0.5564 22.561 26.846 23.147
718 240 1 -1.1128 15.06 25.022 13.71
719 240 2 0.5564 14.815 25.836 14.151
720 240 2 0.5564 15.538 24.525 14.373
721 241 1 -1.1128 5.21 1.489 14.487
722 241 2 0.5564 6.063 1.562 14.058
723 241 2 0.5564 4.638 2.067 13.982
724 242 1 -1.1128 10.652 29.465 21.675
725 242 2 0.5564 10.924 30.382 21.628
726 242 2 0.5564 11.468 28.979 21.797
727 243 1 -1.1128 16.734 24.845 23.875
728 243 2 0.5564 17.484 25.32 23.515
729 243 2 0.5564 16.836 23.952 23.547
730 244 1 -1.1128 23.929 28.335 24.07
731 244 2 0.5564 24.163 28.86 23.304
732 244 2 0.5564 23.268 28.856 24.525
733 245 1 -1.1128 28.955 16.025 0.941
734 245 2 0.5564 28.555 16.56 0.256
735 245 2 0.5564 29.89 16.034 0.738
736 246 1 -1.1128 11.658 18.484 3.734
737 246 2 0.5564 12.194 19.094 3.226
738 246 2 0.5564 10.759 18.783 3.597
739 247 1 -1.1128 22.058 6.008 25.467
740 247 2 0.5564 21.426 5.478 25.954
741 247 2 0.5564 21.531 6.696 25.06
742 248 1 -1.1128 4.177 10.172 13.244
743 248 2 0.5564 4.725 10.725 12.687
744 248 2 0.5564 4.315 9.285 12.911
745 249 1 -1.1128 17.907 13.743 31.944
746 249 2 0.5564 18.18 14.66 31.903
747 249 2 0.5564 18.727 13.252 32.003
748 250 1 -1.1128 24.776 3.746 12.283
749 250 2 0.5564 24.611 3.259 13.09
750 250 2 0.5564 25.498 4.335 12.501
751 251 1 -1.1128 23.266 3.114 4.274
752 251 2 0.5564 24.207 3.185 4.113
753 251 2 0.5564 23.137 2.207 4.549
754 252 1 -1.1128 5.26 8.626 2.364
755 252 2 0.5564 4.774 8.059 2.964
756 252 2 0.5564 4.627 9.291 2.096
757 253 1 -1.1128 6.894 18.423 9.946
758 253 2 0.5564 7.459 18.877 9.322
759 253 2 0.5564 6.06 18.89 9.899
760 254 1 -1.1128 7.841 15.177 26.291
761 254 2 0.5564 8.763 14.97 26.443
762 254 2 0.5564 7.836 16.11 26.076
763 255 1 -1.1128 18.543 29.541 15.648
764 255 2 0.5564 18.443 28.59 15.665
765 255 2 0.5564 17.648 29.878 15.695
766 256 1 -1.1128 18.75 11.583 6.719
767 256 2 0.5564 19.086 12.443 6.467
768 256 2 0.5564 17.801 11.658 6.623
769 257 1 -1.1128 15.626 9.396 20.916
770 257 2 0.5564 15.909 10.29 20.723
771 257 2 0.5564 15.237 9.086 20.098
772 258 1 -1.1128 27.684 27.604 17.401
773 258 2 0.5564 26.782 27.364 17.188
774 258 2 0.5564 27.6 28.299 18.053
775 259 1 -1.1128 31.446 7.393 23.415
776 259 2 0.5564 31.578 7.029 24.291
777 259 2 0.5564 30.964 6.713 22.944
778 260 1 -1.1128 27.591 21.056 23.038
779 260 2 0.5564 27.51 22.008 22.978
780 260 2 0.5564 27.912 20.898 23.926
781 261 1 -1.1128 18.456 16.059 29.328
782 261 2 0.5564 19.386 15.834 29.359
783 261 2 0.5564 18.016 15.236 29.115
784 262 1 -1.1128 13.886 15.517 9.202
785 262 2 0.5564 12.977 15.556 8.903
786 262 2 0.5564 14.195 14.657 8.918
787 263 1 -1.1128 0.144 28.552 0.682
788 263 2 0.5564 0.094 29.368 0.183
789 263 2 0.5564 0.93 28.648 1.22
790 264 1 -1.1128 14.629 13.63 0.536